/*--------------------------------*- C++ -*----------------------------------*\
| =========                 |                                                 |
| \\      /  F ield         | OpenFOAM: The Open Source CFD Toolbox           |
|  \\    /   O peration     | Version:  2406                                  |
|   \\  /    A nd           | Website:  www.openfoam.com                      |
|    \\/     M anipulation  |                                                 |
\*---------------------------------------------------------------------------*/
FoamFile
{
    version     2.0;
    format      binary;
    arch        "LSB;label=32;scalar=64";
    class       polyBoundaryMesh;
    location    "constant/polyMesh";
    object      boundary;
}
// * * * * * * * * * * * * * * * * * * * * * * * * * * * * * * * * * * * * * //

6
(
    outlet
    {
        type            patch;
        nFaces          200;
        startFace       129788;
    }
    walls
    {
        type            wall;
        inGroups        1(wall);
        nFaces          7143;
        startFace       129988;
    }
    inlet1
    {
        type            patch;
        nFaces          190;
        startFace       137131;
    }
    inlet2
    {
        type            patch;
        nFaces          191;
        startFace       137321;
    }
    inlet3
    {
        type            patch;
        nFaces          193;
        startFace       137512;
    }
    inlet4
    {
        type            patch;
        nFaces          189;
        startFace       137705;
    }
)

// ************************************************************************* //
